TITLE="plot"
VARIABLES="x", "y", "z"
ZONE T="f", I=100, J=100, F=POINT
4.59149e-41 0.00282288 0.159154
0.0628319 0.00282288 0.15884
0.125664 0.00282288 0.157903
0.188496 0.00282288 0.156352
0.251327 0.00282288 0.154206
0.314159 0.00282288 0.151491
0.376991 0.00282288 0.148237
0.439823 0.00282288 0.144482
0.502655 0.00282288 0.140266
0.565487 0.00282288 0.135638
0.628319 0.00282288 0.130645
0.69115 0.00282288 0.12534
0.753982 0.00282288 0.119777
0.816814 0.00282288 0.114009
0.879646 0.00282288 0.108092
0.942478 0.00282288 0.102078
1.00531 0.00282288 0.0960194
1.06814 0.00282288 0.0899641
1.13097 0.00282288 0.0839586
1.19381 0.00282288 0.0780452
1.25664 0.00282288 0.0722625
1.31947 0.00282288 0.0666446
1.3823 0.00282288 0.0612214
1.44513 0.00282288 0.0560178
1.50796 0.00282288 0.0510546
1.5708 0.00282288 0.0463478
1.63363 0.00282288 0.0419091
1.69646 0.00282288 0.0377462
1.75929 0.00282288 0.0338629
1.82212 0.00282288 0.0302594
1.88496 0.00282288 0.0269328
1.94779 0.00282288 0.0238775
2.01062 0.00282288 0.0210853
2.07345 0.00282288 0.0185464
2.13628 0.00282288 0.0162488
2.19912 0.00282288 0.0141798
2.26195 0.00282288 0.0123255
2.32478 0.00282288 0.0106715
2.38761 0.00282288 0.00920301
2.45044 0.00282288 0.00790534
2.51327 0.00282288 0.00676389
2.57611 0.00282288 0.00576446
2.63894 0.00282288 0.00489334
2.70177 0.00282288 0.0041375
2.7646 0.00282288 0.00348463
2.82743 0.00282288 0.00292321
2.89027 0.00282288 0.00244258
2.9531 0.00282288 0.00203293
3.01593 0.00282288 0.00168532
3.07876 0.00282288 0.00139165
3.14159 0.00282288 0.00114462
3.20443 0.00282288 0.000937726
3.26726 0.00282288 0.000765205
3.33009 0.00282288 0.000621964
3.39292 0.00282288 0.000503545
3.45575 0.00282288 0.000406066
3.51858 0.00282288 0.000326167
3.58142 0.00282288 0.000260957
3.64425 0.00282288 0.000207962
3.70708 0.00282288 0.000165076
3.76991 0.00282288 0.000130518
3.83274 0.00282288 0.000102788
3.89558 0.00282288 8.06301e-05
3.95841 0.00282288 6.29998e-05
4.02124 0.00282288 4.90306e-05
4.08407 0.00282288 3.80085e-05
4.1469 0.00282288 2.9348e-05
4.20974 0.00282288 2.25716e-05
4.27257 0.00282288 1.72915e-05
4.3354 0.00282288 1.31943e-05
4.39823 0.00282288 1.00283e-05
4.46106 0.00282288 7.59195e-06
4.52389 0.00282288 5.72486e-06
4.58673 0.00282288 4.29993e-06
4.64956 0.00282288 3.21694e-06
4.71239 0.00282288 2.39724e-06
4.77522 0.00282288 1.77936e-06
4.83805 0.00282288 1.31554e-06
4.90089 0.00282288 9.68785e-07
4.96372 0.00282288 7.10619e-07
5.02655 0.00282288 5.19197e-07
5.08938 0.00282288 3.77844e-07
5.15221 0.00282288 2.73892e-07
5.21505 0.00282288 1.97756e-07
5.27788 0.00282288 1.42222e-07
5.34071 0.00282288 1.0188e-07
5.40354 0.00282288 7.26939e-08
5.46637 0.00282288 5.16644e-08
5.5292 0.00282288 3.65738e-08
5.59204 0.00282288 2.5789e-08
5.65487 0.00282288 1.81127e-08
5.7177 0.00282288 1.26712e-08
5.78053 0.00282288 8.82958e-09
5.84336 0.00282288 6.12839e-09
5.9062 0.00282288 4.2368e-09
5.96903 0.00282288 2.91753e-09
6.03186 0.00282288 2.00114e-09
6.09469 0.00282288 1.36718e-09
6.15752 0.00282288 9.30379e-10
6.22036 0.00282288 6.30636e-10
0 0.0656547 0.158812
0.0628319 0.0656547 0.158499
0.125664 0.0656547 0.157563
0.188496 0.0656547 0.156016
0.251327 0.0656547 0.153875
0.314159 0.0656547 0.151165
0.376991 0.0656547 0.147919
0.439823 0.0656547 0.144171
0.502655 0.0656547 0.139965
0.565487 0.0656547 0.135346
0.628319 0.0656547 0.130364
0.69115 0.0656547 0.125071
0.753982 0.0656547 0.119519
0.816814 0.0656547 0.113764
0.879646 0.0656547 0.10786
0.942478 0.0656547 0.101859
1.00531 0.0656547 0.0958131
1.06814 0.0656547 0.0897708
1.13097 0.0656547 0.0837782
1.19381 0.0656547 0.0778775
1.25664 0.0656547 0.0721072
1.31947 0.0656547 0.0665014
1.3823 0.0656547 0.0610898
1.44513 0.0656547 0.0558974
1.50796 0.0656547 0.0509449
1.5708 0.0656547 0.0462482
1.63363 0.0656547 0.041819
1.69646 0.0656547 0.0376651
1.75929 0.0656547 0.0337901
1.82212 0.0656547 0.0301943
1.88496 0.0656547 0.0268749
1.94779 0.0656547 0.0238262
2.01062 0.0656547 0.02104
2.07345 0.0656547 0.0185065
2.13628 0.0656547 0.0162139
2.19912 0.0656547 0.0141493
2.26195 0.0656547 0.012299
2.32478 0.0656547 0.0106485
2.38761 0.0656547 0.00918323
2.45044 0.0656547 0.00788835
2.51327 0.0656547 0.00674936
2.57611 0.0656547 0.00575207
2.63894 0.0656547 0.00488283
2.70177 0.0656547 0.00412861
2.7646 0.0656547 0.00347714
2.82743 0.0656547 0.00291693
2.89027 0.0656547 0.00243733
2.9531 0.0656547 0.00202857
3.01593 0.0656547 0.0016817
3.07876 0.0656547 0.00138866
3.14159 0.0656547 0.00114216
3.20443 0.0656547 0.000935711
3.26726 0.0656547 0.00076356
3.33009 0.0656547 0.000620627
3.39292 0.0656547 0.000502462
3.45575 0.0656547 0.000405193
3.51858 0.0656547 0.000325466
3.58142 0.0656547 0.000260396
3.64425 0.0656547 0.000207515
3.70708 0.0656547 0.000164721
3.76991 0.0656547 0.000130237
3.83274 0.0656547 0.000102567
3.89558 0.0656547 8.04569e-05
3.95841 0.0656547 6.28644e-05
4.02124 0.0656547 4.89252e-05
4.08407 0.0656547 3.79268e-05
4.1469 0.0656547 2.9285e-05
4.20974 0.0656547 2.25231e-05
4.27257 0.0656547 1.72543e-05
4.3354 0.0656547 1.3166e-05
4.39823 0.0656547 1.00068e-05
4.46106 0.0656547 7.57563e-06
4.52389 0.0656547 5.71255e-06
4.58673 0.0656547 4.29069e-06
4.64956 0.0656547 3.21003e-06
4.71239 0.0656547 2.39209e-06
4.77522 0.0656547 1.77554e-06
4.83805 0.0656547 1.31271e-06
4.90089 0.0656547 9.66703e-07
4.96372 0.0656547 7.09092e-07
5.02655 0.0656547 5.18081e-07
5.08938 0.0656547 3.77032e-07
5.15221 0.0656547 2.73303e-07
5.21505 0.0656547 1.97331e-07
5.27788 0.0656547 1.41916e-07
5.34071 0.0656547 1.01661e-07
5.40354 0.0656547 7.25376e-08
5.46637 0.0656547 5.15533e-08
5.5292 0.0656547 3.64952e-08
5.59204 0.0656547 2.57336e-08
5.65487 0.0656547 1.80738e-08
5.7177 0.0656547 1.2644e-08
5.78053 0.0656547 8.81061e-09
5.84336 0.0656547 6.11522e-09
5.9062 0.0656547 4.2277e-09
5.96903 0.0656547 2.91126e-09
6.03186 0.0656547 1.99684e-09
6.09469 0.0656547 1.36424e-09
6.15752 0.0656547 9.28379e-10
6.22036 0.0656547 6.29281e-10
0 0.128487 0.157847
0.0628319 0.128487 0.157535
0.125664 0.128487 0.156605
0.188496 0.128487 0.155067
0.251327 0.128487 0.152939
0.314159 0.128487 0.150246
0.376991 0.128487 0.147019
0.439823 0.128487 0.143294
0.502655 0.128487 0.139114
0.565487 0.128487 0.134523
0.628319 0.128487 0.129571
0.69115 0.128487 0.12431
0.753982 0.128487 0.118793
0.816814 0.128487 0.113073
0.879646 0.128487 0.107204
0.942478 0.128487 0.10124
1.00531 0.128487 0.0952305
1.06814 0.128487 0.0892249
1.13097 0.128487 0.0832687
1.19381 0.128487 0.077404
1.25664 0.128487 0.0716688
1.31947 0.128487 0.0660971
1.3823 0.128487 0.0607183
1.44513 0.128487 0.0555575
1.50796 0.128487 0.0506351
1.5708 0.128487 0.0459669
1.63363 0.128487 0.0415648
1.69646 0.128487 0.0374361
1.75929 0.128487 0.0335846
1.82212 0.128487 0.0300107
1.88496 0.128487 0.0267115
1.94779 0.128487 0.0236813
2.01062 0.128487 0.0209121
2.07345 0.128487 0.018394
2.13628 0.128487 0.0161153
2.19912 0.128487 0.0140633
2.26195 0.128487 0.0122242
2.32478 0.128487 0.0105838
2.38761 0.128487 0.0091274
2.45044 0.128487 0.00784039
2.51327 0.128487 0.00670832
2.57611 0.128487 0.00571709
2.63894 0.128487 0.00485314
2.70177 0.128487 0.00410351
2.7646 0.128487 0.003456
2.82743 0.128487 0.00289919
2.89027 0.128487 0.00242251
2.9531 0.128487 0.00201623
3.01593 0.128487 0.00167148
3.07876 0.128487 0.00138021
3.14159 0.128487 0.00113521
3.20443 0.128487 0.000930022
3.26726 0.128487 0.000758918
3.33009 0.128487 0.000616854
3.39292 0.128487 0.000499407
3.45575 0.128487 0.000402729
3.51858 0.128487 0.000323487
3.58142 0.128487 0.000258813
3.64425 0.128487 0.000206253
3.70708 0.128487 0.00016372
3.76991 0.128487 0.000129445
3.83274 0.128487 0.000101943
3.89558 0.128487 7.99676e-05
3.95841 0.128487 6.24822e-05
4.02124 0.128487 4.86277e-05
4.08407 0.128487 3.76962e-05
4.1469 0.128487 2.91069e-05
4.20974 0.128487 2.23862e-05
4.27257 0.128487 1.71494e-05
4.3354 0.128487 1.30859e-05
4.39823 0.128487 9.9459e-06
4.46106 0.128487 7.52957e-06
4.52389 0.128487 5.67782e-06
4.58673 0.128487 4.2646e-06
4.64956 0.128487 3.19051e-06
4.71239 0.128487 2.37754e-06
4.77522 0.128487 1.76474e-06
4.83805 0.128487 1.30473e-06
4.90089 0.128487 9.60825e-07
4.96372 0.128487 7.0478e-07
5.02655 0.128487 5.14931e-07
5.08938 0.128487 3.7474e-07
5.15221 0.128487 2.71641e-07
5.21505 0.128487 1.96131e-07
5.27788 0.128487 1.41054e-07
5.34071 0.128487 1.01043e-07
5.40354 0.128487 7.20966e-08
5.46637 0.128487 5.12399e-08
5.5292 0.128487 3.62733e-08
5.59204 0.128487 2.55771e-08
5.65487 0.128487 1.79639e-08
5.7177 0.128487 1.25671e-08
5.78053 0.128487 8.75703e-09
5.84336 0.128487 6.07804e-09
5.9062 0.128487 4.20199e-09
5.96903 0.128487 2.89356e-09
6.03186 0.128487 1.9847e-09
6.09469 0.128487 1.35595e-09
6.15752 0.128487 9.22734e-10
6.22036 0.128487 6.25455e-10
0 0.191318 0.156269
0.0628319 0.191318 0.155961
0.125664 0.191318 0.15504
0.188496 0.191318 0.153517
0.251327 0.191318 0.15141
0.314159 0.191318 0.148744
0.376991 0.191318 0.145549
0.439823 0.191318 0.141862
0.502655 0.191318 0.137723
0.565487 0.191318 0.133178
0.628319 0.191318 0.128276
0.69115 0.191318 0.123067
0.753982 0.191318 0.117605
0.816814 0.191318 0.111942
0.879646 0.191318 0.106132
0.942478 0.191318 0.100228
1.00531 0.191318 0.0942785
1.06814 0.191318 0.088333
1.13097 0.191318 0.0824363
1.19381 0.191318 0.0766302
1.25664 0.191318 0.0709523
1.31947 0.191318 0.0654363
1.3823 0.191318 0.0601113
1.44513 0.191318 0.0550021
1.50796 0.191318 0.0501289
1.5708 0.191318 0.0455074
1.63363 0.191318 0.0411492
1.69646 0.191318 0.0370618
1.75929 0.191318 0.0332489
1.82212 0.191318 0.0297107
1.88496 0.191318 0.0264445
1.94779 0.191318 0.0234445
2.01062 0.191318 0.020703
2.07345 0.191318 0.0182101
2.13628 0.191318 0.0159542
2.19912 0.191318 0.0139227
2.26195 0.191318 0.012102
2.32478 0.191318 0.010478
2.38761 0.191318 0.00903615
2.45044 0.191318 0.00776201
2.51327 0.191318 0.00664126
2.57611 0.191318 0.00565994
2.63894 0.191318 0.00480462
2.70177 0.191318 0.00406248
2.7646 0.191318 0.00342145
2.82743 0.191318 0.00287021
2.89027 0.191318 0.00239829
2.9531 0.191318 0.00199608
3.01593 0.191318 0.00165477
3.07876 0.191318 0.00136641
3.14159 0.191318 0.00112386
3.20443 0.191318 0.000920724
3.26726 0.191318 0.000751331
3.33009 0.191318 0.000610687
3.39292 0.191318 0.000494415
3.45575 0.191318 0.000398703
3.51858 0.191318 0.000320253
3.58142 0.191318 0.000256226
3.64425 0.191318 0.000204191
3.70708 0.191318 0.000162083
3.76991 0.191318 0.000128151
3.83274 0.191318 0.000100924
3.89558 0.191318 7.91682e-05
3.95841 0.191318 6.18576e-05
4.02124 0.191318 4.81416e-05
4.08407 0.191318 3.73193e-05
4.1469 0.191318 2.88159e-05
4.20974 0.191318 2.21624e-05
4.27257 0.191318 1.6978e-05
4.3354 0.191318 1.29551e-05
4.39823 0.191318 9.84648e-06
4.46106 0.191318 7.4543e-06
4.52389 0.191318 5.62106e-06
4.58673 0.191318 4.22197e-06
4.64956 0.191318 3.15862e-06
4.71239 0.191318 2.35378e-06
4.77522 0.191318 1.7471e-06
4.83805 0.191318 1.29169e-06
4.90089 0.191318 9.5122e-07
4.96372 0.191318 6.97735e-07
5.02655 0.191318 5.09783e-07
5.08938 0.191318 3.70993e-07
5.15221 0.191318 2.68926e-07
5.21505 0.191318 1.94171e-07
5.27788 0.191318 1.39643e-07
5.34071 0.191318 1.00033e-07
5.40354 0.191318 7.13759e-08
5.46637 0.191318 5.07276e-08
5.5292 0.191318 3.59107e-08
5.59204 0.191318 2.53214e-08
5.65487 0.191318 1.77843e-08
5.7177 0.191318 1.24415e-08
5.78053 0.191318 8.66949e-09
5.84336 0.191318 6.01728e-09
5.9062 0.191318 4.15998e-09
5.96903 0.191318 2.86463e-09
6.03186 0.191318 1.96486e-09
6.09469 0.191318 1.34239e-09
6.15752 0.191318 9.1351e-10
6.22036 0.191318 6.19202e-10
0 0.25415 0.154097
0.0628319 0.25415 0.153793
0.125664 0.25415 0.152885
0.188496 0.25415 0.151384
0.251327 0.25415 0.149306
0.314159 0.25415 0.146677
0.376991 0.25415 0.143527
0.439823 0.25415 0.13989
0.502655 0.25415 0.135809
0.565487 0.25415 0.131328
0.628319 0.25415 0.126493
0.69115 0.25415 0.121357
0.753982 0.25415 0.115971
0.816814 0.25415 0.110387
0.879646 0.25415 0.104658
0.942478 0.25415 0.0988348
1.00531 0.25415 0.0929682
1.06814 0.25415 0.0871054
1.13097 0.25415 0.0812907
1.19381 0.25415 0.0755652
1.25664 0.25415 0.0699663
1.31947 0.25415 0.0645269
1.3823 0.25415 0.059276
1.44513 0.25415 0.0542378
1.50796 0.25415 0.0494322
1.5708 0.25415 0.044875
1.63363 0.25415 0.0405774
1.69646 0.25415 0.0365468
1.75929 0.25415 0.0327868
1.82212 0.25415 0.0292978
1.88496 0.25415 0.026077
1.94779 0.25415 0.0231187
2.01062 0.25415 0.0204153
2.07345 0.25415 0.017957
2.13628 0.25415 0.0157325
2.19912 0.25415 0.0137292
2.26195 0.25415 0.0119339
2.32478 0.25415 0.0103324
2.38761 0.25415 0.00891057
2.45044 0.25415 0.00765414
2.51327 0.25415 0.00654896
2.57611 0.25415 0.00558128
2.63894 0.25415 0.00473785
2.70177 0.25415 0.00400603
2.7646 0.25415 0.0033739
2.82743 0.25415 0.00283032
2.89027 0.25415 0.00236496
2.9531 0.25415 0.00196833
3.01593 0.25415 0.00163177
3.07876 0.25415 0.00134742
3.14159 0.25415 0.00110824
3.20443 0.25415 0.000907929
3.26726 0.25415 0.000740889
3.33009 0.25415 0.0006022
3.39292 0.25415 0.000487544
3.45575 0.25415 0.000393162
3.51858 0.25415 0.000315803
3.58142 0.25415 0.000252665
3.64425 0.25415 0.000201354
3.70708 0.25415 0.00015983
3.76991 0.25415 0.00012637
3.83274 0.25415 9.95214e-05
3.89558 0.25415 7.8068e-05
3.95841 0.25415 6.09979e-05
4.02124 0.25415 4.74726e-05
4.08407 0.25415 3.68007e-05
4.1469 0.25415 2.84155e-05
4.20974 0.25415 2.18544e-05
4.27257 0.25415 1.6742e-05
4.3354 0.25415 1.2775e-05
4.39823 0.25415 9.70964e-06
4.46106 0.25415 7.3507e-06
4.52389 0.25415 5.54294e-06
4.58673 0.25415 4.16329e-06
4.64956 0.25415 3.11472e-06
4.71239 0.25415 2.32106e-06
4.77522 0.25415 1.72282e-06
4.83805 0.25415 1.27373e-06
4.90089 0.25415 9.38e-07
4.96372 0.25415 6.88038e-07
5.02655 0.25415 5.02699e-07
5.08938 0.25415 3.65838e-07
5.15221 0.25415 2.65188e-07
5.21505 0.25415 1.91472e-07
5.27788 0.25415 1.37703e-07
5.34071 0.25415 9.86428e-08
5.40354 0.25415 7.03839e-08
5.46637 0.25415 5.00227e-08
5.5292 0.25415 3.54116e-08
5.59204 0.25415 2.49695e-08
5.65487 0.25415 1.75372e-08
5.7177 0.25415 1.22686e-08
5.78053 0.25415 8.54901e-09
5.84336 0.25415 5.93365e-09
5.9062 0.25415 4.10217e-09
5.96903 0.25415 2.82482e-09
6.03186 0.25415 1.93755e-09
6.09469 0.25415 1.32374e-09
6.15752 0.25415 9.00815e-10
6.22036 0.25415 6.10597e-10
0 0.316982 0.151357
0.0628319 0.316982 0.151058
0.125664 0.316982 0.150166
0.188496 0.316982 0.148692
0.251327 0.316982 0.146651
0.314159 0.316982 0.144069
0.376991 0.316982 0.140974
0.439823 0.316982 0.137403
0.502655 0.316982 0.133394
0.565487 0.316982 0.128992
0.628319 0.316982 0.124244
0.69115 0.316982 0.119199
0.753982 0.316982 0.113908
0.816814 0.316982 0.108424
0.879646 0.316982 0.102796
0.942478 0.316982 0.0970772
1.00531 0.316982 0.091315
1.06814 0.316982 0.0855564
1.13097 0.316982 0.0798451
1.19381 0.316982 0.0742215
1.25664 0.316982 0.0687221
1.31947 0.316982 0.0633795
1.3823 0.316982 0.0582219
1.44513 0.316982 0.0532733
1.50796 0.316982 0.0485532
1.5708 0.316982 0.044077
1.63363 0.316982 0.0398558
1.69646 0.316982 0.0358969
1.75929 0.316982 0.0322038
1.82212 0.316982 0.0287768
1.88496 0.316982 0.0256132
1.94779 0.316982 0.0227076
2.01062 0.316982 0.0200523
2.07345 0.316982 0.0176377
2.13628 0.316982 0.0154527
2.19912 0.316982 0.0134851
2.26195 0.316982 0.0117216
2.32478 0.316982 0.0101486
2.38761 0.316982 0.00875212
2.45044 0.316982 0.00751803
2.51327 0.316982 0.0064325
2.57611 0.316982 0.00548203
2.63894 0.316982 0.0046536
2.70177 0.316982 0.00393479
2.7646 0.316982 0.0033139
2.82743 0.316982 0.00277999
2.89027 0.316982 0.00232291
2.9531 0.316982 0.00193333
3.01593 0.316982 0.00160275
3.07876 0.316982 0.00132346
3.14159 0.316982 0.00108854
3.20443 0.316982 0.000891783
3.26726 0.316982 0.000727715
3.33009 0.316982 0.000591492
3.39292 0.316982 0.000478874
3.45575 0.316982 0.000386171
3.51858 0.316982 0.000310187
3.58142 0.316982 0.000248172
3.64425 0.316982 0.000197773
3.70708 0.316982 0.000156988
3.76991 0.316982 0.000124123
3.83274 0.316982 9.77517e-05
3.89558 0.316982 7.66797e-05
3.95841 0.316982 5.99132e-05
4.02124 0.316982 4.66284e-05
4.08407 0.316982 3.61463e-05
4.1469 0.316982 2.79102e-05
4.20974 0.316982 2.14657e-05
4.27257 0.316982 1.64443e-05
4.3354 0.316982 1.25479e-05
4.39823 0.316982 9.53697e-06
4.46106 0.316982 7.21999e-06
4.52389 0.316982 5.44437e-06
4.58673 0.316982 4.08926e-06
4.64956 0.316982 3.05933e-06
4.71239 0.316982 2.27979e-06
4.77522 0.316982 1.69219e-06
4.83805 0.316982 1.25108e-06
4.90089 0.316982 9.2132e-07
4.96372 0.316982 6.75803e-07
5.02655 0.316982 4.9376e-07
5.08938 0.316982 3.59332e-07
5.15221 0.316982 2.60473e-07
5.21505 0.316982 1.88067e-07
5.27788 0.316982 1.35254e-07
5.34071 0.316982 9.68887e-08
5.40354 0.316982 6.91323e-08
5.46637 0.316982 4.91331e-08
5.5292 0.316982 3.47819e-08
5.59204 0.316982 2.45255e-08
5.65487 0.316982 1.72253e-08
5.7177 0.316982 1.20504e-08
5.78053 0.316982 8.39698e-09
5.84336 0.316982 5.82814e-09
5.9062 0.316982 4.02922e-09
5.96903 0.316982 2.77459e-09
6.03186 0.316982 1.9031e-09
6.09469 0.316982 1.3002e-09
6.15752 0.316982 8.84796e-10
6.22036 0.316982 5.99739e-10
0 0.379814 0.148079
0.0628319 0.379814 0.147787
0.125664 0.379814 0.146915
0.188496 0.379814 0.145472
0.251327 0.379814 0.143476
0.314159 0.379814 0.140949
0.376991 0.379814 0.137922
0.439823 0.379814 0.134428
0.502655 0.379814 0.130506
0.565487 0.379814 0.126199
0.628319 0.379814 0.121554
0.69115 0.379814 0.116618
0.753982 0.379814 0.111442
0.816814 0.379814 0.106076
0.879646 0.379814 0.100571
0.942478 0.379814 0.0949753
1.00531 0.379814 0.0893378
1.06814 0.379814 0.0837039
1.13097 0.379814 0.0781163
1.19381 0.379814 0.0726144
1.25664 0.379814 0.0672341
1.31947 0.379814 0.0620071
1.3823 0.379814 0.0569612
1.44513 0.379814 0.0521198
1.50796 0.379814 0.0475019
1.5708 0.379814 0.0431226
1.63363 0.379814 0.0389928
1.69646 0.379814 0.0351196
1.75929 0.379814 0.0315065
1.82212 0.379814 0.0281537
1.88496 0.379814 0.0250586
1.94779 0.379814 0.0222159
2.01062 0.379814 0.0196181
2.07345 0.379814 0.0172558
2.13628 0.379814 0.0151181
2.19912 0.379814 0.0131931
2.26195 0.379814 0.0114678
2.32478 0.379814 0.0099289
2.38761 0.379814 0.00856261
2.45044 0.379814 0.00735524
2.51327 0.379814 0.00629322
2.57611 0.379814 0.00536333
2.63894 0.379814 0.00455284
2.70177 0.379814 0.00384959
2.7646 0.379814 0.00324215
2.82743 0.379814 0.00271979
2.89027 0.379814 0.00227261
2.9531 0.379814 0.00189147
3.01593 0.379814 0.00156805
3.07876 0.379814 0.00129481
3.14159 0.379814 0.00106497
3.20443 0.379814 0.000872474
3.26726 0.379814 0.000711958
3.33009 0.379814 0.000578684
3.39292 0.379814 0.000468505
3.45575 0.379814 0.000377809
3.51858 0.379814 0.00030347
3.58142 0.379814 0.000242798
3.64425 0.379814 0.000193491
3.70708 0.379814 0.000153589
3.76991 0.379814 0.000121436
3.83274 0.379814 9.56351e-05
3.89558 0.379814 7.50194e-05
3.95841 0.379814 5.86159e-05
4.02124 0.379814 4.56188e-05
4.08407 0.379814 3.53636e-05
4.1469 0.379814 2.73058e-05
4.20974 0.379814 2.1001e-05
4.27257 0.379814 1.60882e-05
4.3354 0.379814 1.22762e-05
4.39823 0.379814 9.33047e-06
4.46106 0.379814 7.06366e-06
4.52389 0.379814 5.32649e-06
4.58673 0.379814 4.00072e-06
4.64956 0.379814 2.99309e-06
4.71239 0.379814 2.23043e-06
4.77522 0.379814 1.65555e-06
4.83805 0.379814 1.22399e-06
4.90089 0.379814 9.01371e-07
4.96372 0.379814 6.6117e-07
5.02655 0.379814 4.83068e-07
5.08938 0.379814 3.51552e-07
5.15221 0.379814 2.54833e-07
5.21505 0.379814 1.83995e-07
5.27788 0.379814 1.32325e-07
5.34071 0.379814 9.47908e-08
5.40354 0.379814 6.76354e-08
5.46637 0.379814 4.80693e-08
5.5292 0.379814 3.40288e-08
5.59204 0.379814 2.39944e-08
5.65487 0.379814 1.68523e-08
5.7177 0.379814 1.17895e-08
5.78053 0.379814 8.21517e-09
5.84336 0.379814 5.70194e-09
5.9062 0.379814 3.94198e-09
5.96903 0.379814 2.71451e-09
6.03186 0.379814 1.86189e-09
6.09469 0.379814 1.27204e-09
6.15752 0.379814 8.65638e-10
6.22036 0.379814 5.86753e-10
0 0.442646 0.144302
0.0628319 0.442646 0.144018
0.125664 0.442646 0.143167
0.188496 0.442646 0.141761
0.251327 0.442646 0.139816
0.314159 0.442646 0.137354
0.376991 0.442646 0.134404
0.439823 0.442646 0.130999
0.502655 0.442646 0.127177
0.565487 0.442646 0.12298
0.628319 0.442646 0.118453
0.69115 0.442646 0.113643
0.753982 0.442646 0.108599
0.816814 0.442646 0.10337
0.879646 0.442646 0.0980053
0.942478 0.442646 0.0925527
1.00531 0.442646 0.0870591
1.06814 0.442646 0.0815688
1.13097 0.442646 0.0761237
1.19381 0.442646 0.0707622
1.25664 0.442646 0.0655191
1.31947 0.442646 0.0604255
1.3823 0.442646 0.0555083
1.44513 0.442646 0.0507903
1.50796 0.442646 0.0462903
1.5708 0.442646 0.0420227
1.63363 0.442646 0.0379982
1.69646 0.442646 0.0342238
1.75929 0.442646 0.0307029
1.82212 0.442646 0.0274356
1.88496 0.442646 0.0244195
1.94779 0.442646 0.0216493
2.01062 0.442646 0.0191177
2.07345 0.442646 0.0168156
2.13628 0.442646 0.0147325
2.19912 0.442646 0.0128566
2.26195 0.442646 0.0111753
2.32478 0.442646 0.00967564
2.38761 0.442646 0.0083442
2.45044 0.442646 0.00716763
2.51327 0.442646 0.0061327
2.57611 0.442646 0.00522653
2.63894 0.442646 0.0044367
2.70177 0.442646 0.0037514
2.7646 0.442646 0.00315945
2.82743 0.442646 0.00265042
2.89027 0.442646 0.00221464
2.9531 0.442646 0.00184322
3.01593 0.442646 0.00152805
3.07876 0.442646 0.00126178
3.14159 0.442646 0.0010378
3.20443 0.442646 0.000850219
3.26726 0.442646 0.000693797
3.33009 0.442646 0.000563923
3.39292 0.442646 0.000456555
3.45575 0.442646 0.000368172
3.51858 0.442646 0.00029573
3.58142 0.442646 0.000236605
3.64425 0.442646 0.000188555
3.70708 0.442646 0.000149671
3.76991 0.442646 0.000118338
3.83274 0.442646 9.31957e-05
3.89558 0.442646 7.31059e-05
3.95841 0.442646 5.71208e-05
4.02124 0.442646 4.44551e-05
4.08407 0.442646 3.44616e-05
4.1469 0.442646 2.66093e-05
4.20974 0.442646 2.04653e-05
4.27257 0.442646 1.56779e-05
4.3354 0.442646 1.1963e-05
4.39823 0.442646 9.09248e-06
4.46106 0.442646 6.88348e-06
4.52389 0.442646 5.19062e-06
4.58673 0.442646 3.89867e-06
4.64956 0.442646 2.91675e-06
4.71239 0.442646 2.17353e-06
4.77522 0.442646 1.61332e-06
4.83805 0.442646 1.19277e-06
4.90089 0.442646 8.7838e-07
4.96372 0.442646 6.44305e-07
5.02655 0.442646 4.70746e-07
5.08938 0.442646 3.42584e-07
5.15221 0.442646 2.48332e-07
5.21505 0.442646 1.79302e-07
5.27788 0.442646 1.2895e-07
5.34071 0.442646 9.23729e-08
5.40354 0.442646 6.59102e-08
5.46637 0.442646 4.68431e-08
5.5292 0.442646 3.31608e-08
5.59204 0.442646 2.33824e-08
5.65487 0.442646 1.64225e-08
5.7177 0.442646 1.14888e-08
5.78053 0.442646 8.00562e-09
5.84336 0.442646 5.5565e-09
5.9062 0.442646 3.84143e-09
5.96903 0.442646 2.64527e-09
6.03186 0.442646 1.8144e-09
6.09469 0.442646 1.2396e-09
6.15752 0.442646 8.43558e-10
6.22036 0.442646 5.71786e-10
0 0.505478 0.140067
0.0628319 0.505478 0.139791
0.125664 0.505478 0.138966
0.188496 0.505478 0.137601
0.251327 0.505478 0.135713
0.314159 0.505478 0.133323
0.376991 0.505478 0.13046
0.439823 0.505478 0.127154
0.502655 0.505478 0.123445
0.565487 0.505478 0.119371
0.628319 0.505478 0.114977
0.69115 0.505478 0.110308
0.753982 0.505478 0.105412
0.816814 0.505478 0.100337
0.879646 0.505478 0.0951292
0.942478 0.505478 0.0898366
1.00531 0.505478 0.0845041
1.06814 0.505478 0.079175
1.13097 0.505478 0.0738897
1.19381 0.505478 0.0686855
1.25664 0.505478 0.0635963
1.31947 0.505478 0.0586522
1.3823 0.505478 0.0538793
1.44513 0.505478 0.0492998
1.50796 0.505478 0.0449318
1.5708 0.505478 0.0407894
1.63363 0.505478 0.0368831
1.69646 0.505478 0.0332194
1.75929 0.505478 0.0298018
1.82212 0.505478 0.0266305
1.88496 0.505478 0.0237028
1.94779 0.505478 0.0210139
2.01062 0.505478 0.0185566
2.07345 0.505478 0.0163222
2.13628 0.505478 0.0143002
2.19912 0.505478 0.0124793
2.26195 0.505478 0.0108474
2.32478 0.505478 0.00939169
2.38761 0.505478 0.00809933
2.45044 0.505478 0.00695728
2.51327 0.505478 0.00595272
2.57611 0.505478 0.00507315
2.63894 0.505478 0.0043065
2.70177 0.505478 0.00364131
2.7646 0.505478 0.00306673
2.82743 0.505478 0.00257264
2.89027 0.505478 0.00214965
2.9531 0.505478 0.00178913
3.01593 0.505478 0.00148321
3.07876 0.505478 0.00122475
3.14159 0.505478 0.00100735
3.20443 0.505478 0.000825268
3.26726 0.505478 0.000673437
3.33009 0.505478 0.000547374
3.39292 0.505478 0.000443156
3.45575 0.505478 0.000357368
3.51858 0.505478 0.000287051
3.58142 0.505478 0.000229661
3.64425 0.505478 0.000183022
3.70708 0.505478 0.000145279
3.76991 0.505478 0.000114865
3.83274 0.505478 9.04607e-05
3.89558 0.505478 7.09604e-05
3.95841 0.505478 5.54445e-05
4.02124 0.505478 4.31505e-05
4.08407 0.505478 3.34502e-05
4.1469 0.505478 2.58284e-05
4.20974 0.505478 1.98647e-05
4.27257 0.505478 1.52178e-05
4.3354 0.505478 1.1612e-05
4.39823 0.505478 8.82564e-06
4.46106 0.505478 6.68147e-06
4.52389 0.505478 5.0383e-06
4.58673 0.505478 3.78425e-06
4.64956 0.505478 2.83115e-06
4.71239 0.505478 2.10975e-06
4.77522 0.505478 1.56597e-06
4.83805 0.505478 1.15777e-06
4.90089 0.505478 8.52602e-07
4.96372 0.505478 6.25397e-07
5.02655 0.505478 4.56931e-07
5.08938 0.505478 3.32531e-07
5.15221 0.505478 2.41045e-07
5.21505 0.505478 1.7404e-07
5.27788 0.505478 1.25166e-07
5.34071 0.505478 8.96621e-08
5.40354 0.505478 6.39759e-08
5.46637 0.505478 4.54684e-08
5.5292 0.505478 3.21876e-08
5.59204 0.505478 2.26962e-08
5.65487 0.505478 1.59405e-08
5.7177 0.505478 1.11516e-08
5.78053 0.505478 7.77068e-09
5.84336 0.505478 5.39343e-09
5.9062 0.505478 3.7287e-09
5.96903 0.505478 2.56764e-09
6.03186 0.505478 1.76115e-09
6.09469 0.505478 1.20322e-09
6.15752 0.505478 8.18802e-10
6.22036 0.505478 5.55006e-10
0 0.56831 0.135421
0.0628319 0.56831 0.135154
0.125664 0.56831 0.134356
0.188496 0.56831 0.133037
0.251327 0.56831 0.131211
0.314159 0.56831 0.128901
0.376991 0.56831 0.126132
0.439823 0.56831 0.122937
0.502655 0.56831 0.11935
0.565487 0.56831 0.115411
0.628319 0.56831 0.111163
0.69115 0.56831 0.106649
0.753982 0.56831 0.101916
0.816814 0.56831 0.0970084
0.879646 0.56831 0.0919736
0.942478 0.56831 0.0868566
1.00531 0.56831 0.081701
1.06814 0.56831 0.0765487
1.13097 0.56831 0.0714387
1.19381 0.56831 0.0664071
1.25664 0.56831 0.0614867
1.31947 0.56831 0.0567066
1.3823 0.56831 0.052092
1.44513 0.56831 0.0476644
1.50796 0.56831 0.0434413
1.5708 0.56831 0.0394364
1.63363 0.56831 0.0356596
1.69646 0.56831 0.0321175
1.75929 0.56831 0.0288133
1.82212 0.56831 0.0257471
1.88496 0.56831 0.0229166
1.94779 0.56831 0.0203169
2.01062 0.56831 0.0179411
2.07345 0.56831 0.0157807
2.13628 0.56831 0.0138258
2.19912 0.56831 0.0120653
2.26195 0.56831 0.0104875
2.32478 0.56831 0.00908015
2.38761 0.56831 0.00783066
2.45044 0.56831 0.0067265
2.51327 0.56831 0.00575526
2.57611 0.56831 0.00490486
2.63894 0.56831 0.00416365
2.70177 0.56831 0.00352052
2.7646 0.56831 0.002965
2.82743 0.56831 0.0024873
2.89027 0.56831 0.00207834
2.9531 0.56831 0.00172978
3.01593 0.56831 0.00143401
3.07876 0.56831 0.00118412
3.14159 0.56831 0.000973931
3.20443 0.56831 0.000797893
3.26726 0.56831 0.000651098
3.33009 0.56831 0.000529217
3.39292 0.56831 0.000428456
3.45575 0.56831 0.000345513
3.51858 0.56831 0.000277529
3.58142 0.56831 0.000222043
3.64425 0.56831 0.000176951
3.70708 0.56831 0.00014046
3.76991 0.56831 0.000111055
3.83274 0.56831 8.746e-05
3.89558 0.56831 6.86066e-05
3.95841 0.56831 5.36053e-05
4.02124 0.56831 4.17192e-05
4.08407 0.56831 3.23406e-05
4.1469 0.56831 2.49717e-05
4.20974 0.56831 1.92057e-05
4.27257 0.56831 1.4713e-05
4.3354 0.56831 1.12268e-05
4.39823 0.56831 8.53288e-06
4.46106 0.56831 6.45984e-06
4.52389 0.56831 4.87117e-06
4.58673 0.56831 3.65873e-06
4.64956 0.56831 2.73723e-06
4.71239 0.56831 2.03976e-06
4.77522 0.56831 1.51403e-06
4.83805 0.56831 1.11936e-06
4.90089 0.56831 8.2432e-07
4.96372 0.56831 6.04652e-07
5.02655 0.56831 4.41774e-07
5.08938 0.56831 3.215e-07
5.15221 0.56831 2.33049e-07
5.21505 0.56831 1.68267e-07
5.27788 0.56831 1.21014e-07
5.34071 0.56831 8.66879e-08
5.40354 0.56831 6.18538e-08
5.46637 0.56831 4.39602e-08
5.5292 0.56831 3.11199e-08
5.59204 0.56831 2.19433e-08
5.65487 0.56831 1.54118e-08
5.7177 0.56831 1.07817e-08
5.78053 0.56831 7.51292e-09
5.84336 0.56831 5.21453e-09
5.9062 0.56831 3.60501e-09
5.96903 0.56831 2.48247e-09
6.03186 0.56831 1.70273e-09
6.09469 0.56831 1.16331e-09
6.15752 0.56831 7.91641e-10
6.22036 0.56831 5.36596e-10
0 0.631141 0.130413
0.0628319 0.631141 0.130156
0.125664 0.631141 0.129388
0.188496 0.631141 0.128117
0.251327 0.631141 0.126359
0.314159 0.631141 0.124134
0.376991 0.631141 0.121468
0.439823 0.631141 0.11839
0.502655 0.631141 0.114936
0.565487 0.631141 0.111143
0.628319 0.631141 0.107052
0.69115 0.631141 0.102705
0.753982 0.631141 0.0981467
0.816814 0.631141 0.093421
0.879646 0.631141 0.0885724
0.942478 0.631141 0.0836445
1.00531 0.631141 0.0786796
1.06814 0.631141 0.0737179
1.13097 0.631141 0.0687968
1.19381 0.631141 0.0639514
1.25664 0.631141 0.0592129
1.31947 0.631141 0.0546096
1.3823 0.631141 0.0501656
1.44513 0.631141 0.0459018
1.50796 0.631141 0.0418348
1.5708 0.631141 0.037978
1.63363 0.631141 0.0343409
1.69646 0.631141 0.0309298
1.75929 0.631141 0.0277477
1.82212 0.631141 0.0247949
1.88496 0.631141 0.0220691
1.94779 0.631141 0.0195655
2.01062 0.631141 0.0172776
2.07345 0.631141 0.0151971
2.13628 0.631141 0.0133145
2.19912 0.631141 0.0116191
2.26195 0.631141 0.0100997
2.32478 0.631141 0.00874436
2.38761 0.631141 0.00754108
2.45044 0.631141 0.00647775
2.51327 0.631141 0.00554243
2.57611 0.631141 0.00472348
2.63894 0.631141 0.00400967
2.70177 0.631141 0.00339033
2.7646 0.631141 0.00285535
2.82743 0.631141 0.00239532
2.89027 0.631141 0.00200148
2.9531 0.631141 0.00166581
3.01593 0.631141 0.00138098
3.07876 0.631141 0.00114033
3.14159 0.631141 0.000937914
3.20443 0.631141 0.000768386
3.26726 0.631141 0.00062702
3.33009 0.631141 0.000509646
3.39292 0.631141 0.000412612
3.45575 0.631141 0.000332736
3.51858 0.631141 0.000267266
3.58142 0.631141 0.000213832
3.64425 0.631141 0.000170407
3.70708 0.631141 0.000135266
3.76991 0.631141 0.000106948
3.83274 0.631141 8.42256e-05
3.89558 0.631141 6.60695e-05
3.95841 0.631141 5.16229e-05
4.02124 0.631141 4.01764e-05
4.08407 0.631141 3.11447e-05
4.1469 0.631141 2.40482e-05
4.20974 0.631141 1.84955e-05
4.27257 0.631141 1.41689e-05
4.3354 0.631141 1.08116e-05
4.39823 0.631141 8.21733e-06