TITLE="sinsin"
VARIABLES="x", "y", "z"
ZONE T="sin(x)sin(y)", I=100, J=100, F=POINT
2.76935e-29 4.59135e-41 0
0.0628319 4.59135e-41 2.88247e-42
0.125664 4.59135e-41 5.75513e-42
0.188496 4.59135e-41 8.60397e-42
0.251327 4.59135e-41 1.14178e-41
0.314159 4.59135e-41 1.41881e-41
0.376991 4.59135e-41 1.69025e-41
0.439823 4.59135e-41 1.95495e-41
0.502655 4.59135e-41 2.21195e-41
0.565487 4.59135e-41 2.46012e-41
0.628319 4.59135e-41 2.69876e-41
0.69115 4.59135e-41 2.92661e-41
0.753982 4.59135e-41 3.14297e-41
0.816814 4.59135e-41 3.347e-41
0.879646 4.59135e-41 3.53772e-41
0.942478 4.59135e-41 3.71442e-41
1.00531 4.59135e-41 3.87655e-41
1.06814 4.59135e-41 4.02341e-41
1.13097 4.59135e-41 4.15443e-41
1.19381 4.59135e-41 4.26892e-41
1.25664 4.59135e-41 4.36659e-41
1.31947 4.59135e-41 4.44716e-41
1.3823 4.59135e-41 4.51008e-41
1.44513 4.59135e-41 4.5552e-41
1.50796 4.59135e-41 4.58225e-41
1.5708 4.59135e-41 4.59135e-41
1.63363 4.59135e-41 4.58225e-41
1.69646 4.59135e-41 4.5552e-41
1.75929 4.59135e-41 4.51008e-41
1.82212 4.59135e-41 4.44716e-41
1.88496 4.59135e-41 4.36659e-41
1.94779 4.59135e-41 4.26892e-41
2.01062 4.59135e-41 4.15443e-41
2.07345 4.59135e-41 4.02341e-41
2.13628 4.59135e-41 3.87655e-41
2.19912 4.59135e-41 3.71442e-41
2.26195 4.59135e-41 3.53772e-41
2.32478 4.59135e-41 3.347e-41
2.38761 4.59135e-41 3.14297e-41
2.45044 4.59135e-41 2.92661e-41
2.51327 4.59135e-41 2.69876e-41
2.57611 4.59135e-41 2.46012e-41
2.63894 4.59135e-41 2.21195e-41
2.70177 4.59135e-41 1.95495e-41
2.7646 4.59135e-41 1.69025e-41
2.82743 4.59135e-41 1.41881e-41
2.89027 4.59135e-41 1.14178e-41
2.9531 4.59135e-41 8.60397e-42
3.01593 4.59135e-41 5.75513e-42
3.07876 4.59135e-41 2.88247e-42
3.14159 4.59135e-41 -0
3.20443 4.59135e-41 -2.88247e-42
3.26726 4.59135e-41 -5.75513e-42
3.33009 4.59135e-41 -8.60397e-42
3.39292 4.59135e-41 -1.14178e-41
3.45575 4.59135e-41 -1.41881e-41
3.51858 4.59135e-41 -1.69025e-41
3.58142 4.59135e-41 -1.95495e-41
3.64425 4.59135e-41 -2.21195e-41
3.70708 4.59135e-41 -2.46012e-41
3.76991 4.59135e-41 -2.69876e-41
3.83274 4.59135e-41 -2.92661e-41
3.89558 4.59135e-41 -3.14297e-41
3.95841 4.59135e-41 -3.347e-41
4.02124 4.59135e-41 -3.53772e-41
4.08407 4.59135e-41 -3.71442e-41
4.1469 4.59135e-41 -3.87655e-41
4.20974 4.59135e-41 -4.02341e-41
4.27257 4.59135e-41 -4.15443e-41
4.3354 4.59135e-41 -4.26892e-41
4.39823 4.59135e-41 -4.36659e-41
4.46106 4.59135e-41 -4.44716e-41
4.52389 4.59135e-41 -4.51008e-41
4.58673 4.59135e-41 -4.5552e-41
4.64956 4.59135e-41 -4.58225e-41
4.71239 4.59135e-41 -4.59135e-41
4.77522 4.59135e-41 -4.58225e-41
4.83805 4.59135e-41 -4.5552e-41
4.90089 4.59135e-41 -4.51008e-41
4.96372 4.59135e-41 -4.44716e-41
5.02655 4.59135e-41 -4.36659e-41
5.08938 4.59135e-41 -4.26892e-41
5.15221 4.59135e-41 -4.15443e-41
5.21505 4.59135e-41 -4.02341e-41
5.27788 4.59135e-41 -3.87655e-41
5.34071 4.59135e-41 -3.71442e-41
5.40354 4.59135e-41 -3.53772e-41
5.46637 4.59135e-41 -3.347e-41
5.5292 4.59135e-41 -3.14297e-41
5.59204 4.59135e-41 -2.92661e-41
5.65487 4.59135e-41 -2.69876e-41
5.7177 4.59135e-41 -2.46012e-41
5.78053 4.59135e-41 -2.21195e-41
5.84336 4.59135e-41 -1.95495e-41
5.9062 4.59135e-41 -1.69025e-41
5.96903 4.59135e-41 -1.41881e-41
6.03186 4.59135e-41 -1.14178e-41
6.09469 4.59135e-41 -8.60257e-42
6.15752 4.59135e-41 -5.75373e-42
6.22036 4.59135e-41 -2.88247e-42
0 0.0628319 0
0.0628319 0.0628319 0.00394265
0.125664 0.0628319 0.00786974
0.188496 0.0628319 0.0117658
0.251327 0.0628319 0.0156154
0.314159 0.0628319 0.0194033
0.376991 0.0628319 0.0231147
0.439823 0.0628319 0.0267349
0.502655 0.0628319 0.0302496
0.565487 0.0628319 0.0336448
0.628319 0.0628319 0.0369073
0.69115 0.0628319 0.0400242
0.753982 0.0628319 0.0429831
0.816814 0.0628319 0.0457723
0.879646 0.0628319 0.0483809
0.942478 0.0628319 0.0507986
1.00531 0.0628319 0.0530158
1.06814 0.0628319 0.0550238
1.13097 0.0628319 0.0568146
1.19381 0.0628319 0.0583812
1.25664 0.0628319 0.0597173
1.31947 0.0628319 0.0608178
1.3823 0.0628319 0.0616783
1.44513 0.0628319 0.0622954
1.50796 0.0628319 0.0626666
1.5708 0.0628319 0.0627905
1.63363 0.0628319 0.0626666
1.69646 0.0628319 0.0622954
1.75929 0.0628319 0.0616783
1.82212 0.0628319 0.0608178
1.88496 0.0628319 0.0597173
1.94779 0.0628319 0.0583811
2.01062 0.0628319 0.0568145
2.07345 0.0628319 0.0550237
2.13628 0.0628319 0.0530158
2.19912 0.0628319 0.0507986
2.26195 0.0628319 0.0483809
2.32478 0.0628319 0.0457723
2.38761 0.0628319 0.042983
2.45044 0.0628319 0.0400241
2.51327 0.0628319 0.0369073
2.57611 0.0628319 0.0336448
2.63894 0.0628319 0.0302495
2.70177 0.0628319 0.0267349
2.7646 0.0628319 0.0231147
2.82743 0.0628319 0.0194033
2.89027 0.0628319 0.0156153
2.9531 0.0628319 0.0117657
3.01593 0.0628319 0.00786968
3.07876 0.0628319 0.00394259
3.14159 0.0628319 -6.5371e-08
3.20443 0.0628319 -0.00394272
3.26726 0.0628319 -0.00786981
3.33009 0.0628319 -0.0117658
3.39292 0.0628319 -0.0156154
3.45575 0.0628319 -0.0194034
3.51858 0.0628319 -0.0231148
3.58142 0.0628319 -0.026735
3.64425 0.0628319 -0.0302496
3.70708 0.0628319 -0.0336449
3.76991 0.0628319 -0.0369074
3.83274 0.0628319 -0.0400242
3.89558 0.0628319 -0.0429831
3.95841 0.0628319 -0.0457724
4.02124 0.0628319 -0.048381
4.08407 0.0628319 -0.0507986
4.1469 0.0628319 -0.0530158
4.20974 0.0628319 -0.0550238
4.27257 0.0628319 -0.0568146
4.3354 0.0628319 -0.0583812
4.39823 0.0628319 -0.0597174
4.46106 0.0628319 -0.0608179
4.52389 0.0628319 -0.0616783
4.58673 0.0628319 -0.0622954
4.64956 0.0628319 -0.0626666
4.71239 0.0628319 -0.0627905
4.77522 0.0628319 -0.0626666
4.83805 0.0628319 -0.0622954
4.90089 0.0628319 -0.0616783
4.96372 0.0628319 -0.0608178
5.02655 0.0628319 -0.0597173
5.08938 0.0628319 -0.0583811
5.15221 0.0628319 -0.0568145
5.21505 0.0628319 -0.0550237
5.27788 0.0628319 -0.0530157
5.34071 0.0628319 -0.0507985
5.40354 0.0628319 -0.0483809
5.46637 0.0628319 -0.0457722
5.5292 0.0628319 -0.042983
5.59204 0.0628319 -0.0400241
5.65487 0.0628319 -0.0369072
5.7177 0.0628319 -0.0336447
5.78053 0.0628319 -0.0302495
5.84336 0.0628319 -0.0267348
5.9062 0.0628319 -0.0231146
5.96903 0.0628319 -0.0194032
6.03186 0.0628319 -0.0156152
6.09469 0.0628319 -0.0117656
6.15752 0.0628319 -0.00786961
6.22036 0.0628319 -0.00394252
0 0.125664 0
0.0628319 0.125664 0.00786974
0.125664 0.125664 0.0157084
0.188496 0.125664 0.0234851
0.251327 0.125664 0.0311691
0.314159 0.125664 0.0387301
0.376991 0.125664 0.0461382
0.439823 0.125664 0.0533643
0.502655 0.125664 0.0603798
0.565487 0.125664 0.0671569
0.628319 0.125664 0.073669
0.69115 0.125664 0.0798904
0.753982 0.125664 0.0857965
0.816814 0.125664 0.091364
0.879646 0.125664 0.0965709
0.942478 0.125664 0.101397
1.00531 0.125664 0.105822
1.06814 0.125664 0.10983
1.13097 0.125664 0.113405
1.19381 0.125664 0.116532
1.25664 0.125664 0.119199
1.31947 0.125664 0.121396
1.3823 0.125664 0.123113
1.44513 0.125664 0.124345
1.50796 0.125664 0.125086
1.5708 0.125664 0.125333
1.63363 0.125664 0.125086
1.69646 0.125664 0.124345
1.75929 0.125664 0.123113
1.82212 0.125664 0.121396
1.88496 0.125664 0.119199
1.94779 0.125664 0.116532
2.01062 0.125664 0.113405
2.07345 0.125664 0.10983
2.13628 0.125664 0.105822
2.19912 0.125664 0.101397
2.26195 0.125664 0.0965709
2.32478 0.125664 0.0913639
2.38761 0.125664 0.0857964
2.45044 0.125664 0.0798903
2.51327 0.125664 0.0736689
2.57611 0.125664 0.0671568
2.63894 0.125664 0.0603797
2.70177 0.125664 0.0533642
2.7646 0.125664 0.0461381
2.82743 0.125664 0.03873
2.89027 0.125664 0.031169
2.9531 0.125664 0.023485
3.01593 0.125664 0.0157083
3.07876 0.125664 0.00786961
3.14159 0.125664 -1.30484e-07
3.20443 0.125664 -0.00786987
3.26726 0.125664 -0.0157086
3.33009 0.125664 -0.0234852
3.39292 0.125664 -0.0311692
3.45575 0.125664 -0.0387302
3.51858 0.125664 -0.0461384
3.58142 0.125664 -0.0533644
3.64425 0.125664 -0.0603799
3.70708 0.125664 -0.067157
3.76991 0.125664 -0.0736692
3.83274 0.125664 -0.0798905
3.89558 0.125664 -0.0857966
3.95841 0.125664 -0.0913641
4.02124 0.125664 -0.096571
4.08407 0.125664 -0.101397
4.1469 0.125664 -0.105822
4.20974 0.125664 -0.10983
4.27257 0.125664 -0.113405
4.3354 0.125664 -0.116532
4.39823 0.125664 -0.119199
4.46106 0.125664 -0.121396
4.52389 0.125664 -0.123113
4.58673 0.125664 -0.124345
4.64956 0.125664 -0.125086
4.71239 0.125664 -0.125333
4.77522 0.125664 -0.125086
4.83805 0.125664 -0.124345
4.90089 0.125664 -0.123113
4.96372 0.125664 -0.121396
5.02655 0.125664 -0.119199
5.08938 0.125664 -0.116532
5.15221 0.125664 -0.113405
5.21505 0.125664 -0.10983
5.27788 0.125664 -0.105822
5.34071 0.125664 -0.101397
5.40354 0.125664 -0.0965708
5.46637 0.125664 -0.0913638
5.5292 0.125664 -0.0857963
5.59204 0.125664 -0.0798902
5.65487 0.125664 -0.0736688
5.7177 0.125664 -0.0671567
5.78053 0.125664 -0.0603795
5.84336 0.125664 -0.0533641
5.9062 0.125664 -0.046138
5.96903 0.125664 -0.0387299
6.03186 0.125664 -0.0311689
6.09469 0.125664 -0.0234849
6.15752 0.125664 -0.0157082
6.22036 0.125664 -0.00786948
0 0.188496 0
0.0628319 0.188496 0.0117658
0.125664 0.188496 0.0234851
0.188496 0.188496 0.0351118
0.251327 0.188496 0.0465998
0.314159 0.188496 0.057904
0.376991 0.188496 0.0689797
0.439823 0.188496 0.0797831
0.502655 0.188496 0.0902717
0.565487 0.188496 0.100404
0.628319 0.188496 0.11014
0.69115 0.188496 0.119441
0.753982 0.188496 0.128271
0.816814 0.188496 0.136595
0.879646 0.188496 0.14438
0.942478 0.188496 0.151595
1.00531 0.188496 0.158211
1.06814 0.188496 0.164204
1.13097 0.188496 0.169548
1.19381 0.188496 0.174223
1.25664 0.188496 0.17821
1.31947 0.188496 0.181494
1.3823 0.188496 0.184062
1.44513 0.188496 0.185904
1.50796 0.188496 0.187012
1.5708 0.188496 0.187381
1.63363 0.188496 0.187012
1.69646 0.188496 0.185904
1.75929 0.188496 0.184062
1.82212 0.188496 0.181494
1.88496 0.188496 0.17821
1.94779 0.188496 0.174223
2.01062 0.188496 0.169548
2.07345 0.188496 0.164203
2.13628 0.188496 0.158211
2.19912 0.188496 0.151595
2.26195 0.188496 0.14438
2.32478 0.188496 0.136595
2.38761 0.188496 0.128271
2.45044 0.188496 0.119441
2.51327 0.188496 0.11014
2.57611 0.188496 0.100404
2.63894 0.188496 0.0902715
2.70177 0.188496 0.0797829
2.7646 0.188496 0.0689795
2.82743 0.188496 0.0579039
2.89027 0.188496 0.0465997
2.9531 0.188496 0.0351116
3.01593 0.188496 0.0234849
3.07876 0.188496 0.0117656
3.14159 0.188496 -1.95082e-07
3.20443 0.188496 -0.011766
3.26726 0.188496 -0.0234853
3.33009 0.188496 -0.035112
3.39292 0.188496 -0.0466
3.45575 0.188496 -0.0579042
3.51858 0.188496 -0.0689799
3.58142 0.188496 -0.0797833
3.64425 0.188496 -0.0902718
3.70708 0.188496 -0.100404
3.76991 0.188496 -0.11014
3.83274 0.188496 -0.119442
3.89558 0.188496 -0.128272
3.95841 0.188496 -0.136595
4.02124 0.188496 -0.14438
4.08407 0.188496 -0.151595
4.1469 0.188496 -0.158211
4.20974 0.188496 -0.164204
4.27257 0.188496 -0.169548
4.3354 0.188496 -0.174223
4.39823 0.188496 -0.17821
4.46106 0.188496 -0.181494
4.52389 0.188496 -0.184062
4.58673 0.188496 -0.185904
4.64956 0.188496 -0.187012
4.71239 0.188496 -0.187381
4.77522 0.188496 -0.187012
4.83805 0.188496 -0.185904
4.90089 0.188496 -0.184062
4.96372 0.188496 -0.181494
5.02655 0.188496 -0.17821
5.08938 0.188496 -0.174223
5.15221 0.188496 -0.169548
5.21505 0.188496 -0.164203
5.27788 0.188496 -0.158211
5.34071 0.188496 -0.151594
5.40354 0.188496 -0.14438
5.46637 0.188496 -0.136595
5.5292 0.188496 -0.128271
5.59204 0.188496 -0.119441
5.65487 0.188496 -0.11014
5.7177 0.188496 -0.100404
5.78053 0.188496 -0.0902713
5.84336 0.188496 -0.0797828
5.9062 0.188496 -0.0689793
5.96903 0.188496 -0.0579037
6.03186 0.188496 -0.0465995
6.09469 0.188496 -0.0351114
6.15752 0.188496 -0.0234847
6.22036 0.188496 -0.0117654
0 0.251327 0
0.0628319 0.251327 0.0156154
0.125664 0.251327 0.0311691
0.188496 0.251327 0.0465998
0.251327 0.251327 0.0618467
0.314159 0.251327 0.0768494
0.376991 0.251327 0.0915489
0.439823 0.251327 0.105887
0.502655 0.251327 0.119807
0.565487 0.251327 0.133255
0.628319 0.251327 0.146176
0.69115 0.251327 0.158521
0.753982 0.251327 0.17024
0.816814 0.251327 0.181287
0.879646 0.251327 0.191619
0.942478 0.251327 0.201194
1.00531 0.251327 0.209976
1.06814 0.251327 0.217929
1.13097 0.251327 0.225021
1.19381 0.251327 0.231226
1.25664 0.251327 0.236518
1.31947 0.251327 0.240877
1.3823 0.251327 0.244285
1.44513 0.251327 0.246729
1.50796 0.251327 0.248199
1.5708 0.251327 0.24869
1.63363 0.251327 0.248199
1.69646 0.251327 0.246729
1.75929 0.251327 0.244285
1.82212 0.251327 0.240877
1.88496 0.251327 0.236518
1.94779 0.251327 0.231226
2.01062 0.251327 0.225021
2.07345 0.251327 0.217929
2.13628 0.251327 0.209976
2.19912 0.251327 0.201194
2.26195 0.251327 0.191619
2.32478 0.251327 0.181287
2.38761 0.251327 0.17024
2.45044 0.251327 0.158521
2.51327 0.251327 0.146176
2.57611 0.251327 0.133255
2.63894 0.251327 0.119807
2.70177 0.251327 0.105887
2.7646 0.251327 0.0915487
2.82743 0.251327 0.0768492
2.89027 0.251327 0.0618464
2.9531 0.251327 0.0465996
3.01593 0.251327 0.0311689
3.07876 0.251327 0.0156151
3.14159 0.251327 -2.5891e-07
3.20443 0.251327 -0.0156156
3.26726 0.251327 -0.0311694
3.33009 0.251327 -0.0466001
3.39292 0.251327 -0.0618469
3.45575 0.251327 -0.0768497
3.51858 0.251327 -0.0915491
3.58142 0.251327 -0.105887
3.64425 0.251327 -0.119808
3.70708 0.251327 -0.133255
3.76991 0.251327 -0.146177
3.83274 0.251327 -0.158521
3.89558 0.251327 -0.17024
3.95841 0.251327 -0.181287
4.02124 0.251327 -0.191619
4.08407 0.251327 -0.201195
4.1469 0.251327 -0.209976
4.20974 0.251327 -0.217929
4.27257 0.251327 -0.225021
4.3354 0.251327 -0.231226
4.39823 0.251327 -0.236518
4.46106 0.251327 -0.240877
4.52389 0.251327 -0.244285
4.58673 0.251327 -0.246729
4.64956 0.251327 -0.248199
4.71239 0.251327 -0.24869
4.77522 0.251327 -0.248199
4.83805 0.251327 -0.246729
4.90089 0.251327 -0.244285
4.96372 0.251327 -0.240877
5.02655 0.251327 -0.236518
5.08938 0.251327 -0.231226
5.15221 0.251327 -0.225021
5.21505 0.251327 -0.217928
5.27788 0.251327 -0.209976
5.34071 0.251327 -0.201194
5.40354 0.251327 -0.191619
5.46637 0.251327 -0.181287
5.5292 0.251327 -0.17024
5.59204 0.251327 -0.158521
5.65487 0.251327 -0.146176
5.7177 0.251327 -0.133254
5.78053 0.251327 -0.119807
5.84336 0.251327 -0.105887
5.9062 0.251327 -0.0915484
5.96903 0.251327 -0.0768489
6.03186 0.251327 -0.0618462
6.09469 0.251327 -0.0465994
6.15752 0.251327 -0.0311686
6.22036 0.251327 -0.0156149
0 0.314159 0
0.0628319 0.314159 0.0194033
0.125664 0.314159 0.0387301
0.188496 0.314159 0.057904
0.251327 0.314159 0.0768494
0.314159 0.314159 0.0954915
0.376991 0.314159 0.113757
0.439823 0.314159 0.131573
0.502655 0.314159 0.14887
0.565487 0.314159 0.16558
0.628319 0.314159 0.181636
0.69115 0.314159 0.196975
0.753982 0.314159 0.211537
0.816814 0.314159 0.225264
0.879646 0.314159 0.238102
0.942478 0.314159 0.25
1.00531 0.314159 0.260912
1.06814 0.314159 0.270794
1.13097 0.314159 0.279607
1.19381 0.314159 0.287317
1.25664 0.314159 0.293893
1.31947 0.314159 0.299309
1.3823 0.314159 0.303543
1.44513 0.314159 0.30658
1.50796 0.314159 0.308407
1.5708 0.314159 0.309017
1.63363 0.314159 0.308407
1.69646 0.314159 0.30658
1.75929 0.314159 0.303543
1.82212 0.314159 0.299309
1.88496 0.314159 0.293893
1.94779 0.314159 0.287317
2.01062 0.314159 0.279607
2.07345 0.314159 0.270794
2.13628 0.314159 0.260912
2.19912 0.314159 0.25
2.26195 0.314159 0.238102
2.32478 0.314159 0.225264
2.38761 0.314159 0.211537
2.45044 0.314159 0.196975
2.51327 0.314159 0.181635
2.57611 0.314159 0.165579
2.63894 0.314159 0.14887
2.70177 0.314159 0.131573
2.7646 0.314159 0.113756
2.82743 0.314159 0.0954912
2.89027 0.314159 0.0768491
2.9531 0.314159 0.0579037
3.01593 0.314159 0.0387298
3.07876 0.314159 0.019403
3.14159 0.314159 -3.21717e-07
3.20443 0.314159 -0.0194037
3.26726 0.314159 -0.0387304
3.33009 0.314159 -0.0579044
3.39292 0.314159 -0.0768497
3.45575 0.314159 -0.0954918
3.51858 0.314159 -0.113757
3.58142 0.314159 -0.131573
3.64425 0.314159 -0.14887
3.70708 0.314159 -0.16558
3.76991 0.314159 -0.181636
3.83274 0.314159 -0.196975
3.89558 0.314159 -0.211537
3.95841 0.314159 -0.225264
4.02124 0.314159 -0.238102
4.08407 0.314159 -0.25
4.1469 0.314159 -0.260912
4.20974 0.314159 -0.270794
4.27257 0.314159 -0.279607
4.3354 0.314159 -0.287317
4.39823 0.314159 -0.293893
4.46106 0.314159 -0.299309
4.52389 0.314159 -0.303544
4.58673 0.314159 -0.30658
4.64956 0.314159 -0.308407
4.71239 0.314159 -0.309017
4.77522 0.314159 -0.308407
4.83805 0.314159 -0.30658
4.90089 0.314159 -0.303543
4.96372 0.314159 -0.299309
5.02655 0.314159 -0.293892
5.08938 0.314159 -0.287317
5.15221 0.314159 -0.279607
5.21505 0.314159 -0.270793
5.27788 0.314159 -0.260911
5.34071 0.314159 -0.25
5.40354 0.314159 -0.238101
5.46637 0.314159 -0.225263
5.5292 0.314159 -0.211536
5.59204 0.314159 -0.196974
5.65487 0.314159 -0.181635
5.7177 0.314159 -0.165579
5.78053 0.314159 -0.14887
5.84336 0.314159 -0.131572
5.9062 0.314159 -0.113756
5.96903 0.314159 -0.0954909
6.03186 0.314159 -0.0768488
6.09469 0.314159 -0.0579034
6.15752 0.314159 -0.0387295
6.22036 0.314159 -0.0194027
0 0.376991 0
0.0628319 0.376991 0.0231147
0.125664 0.376991 0.0461382
0.188496 0.376991 0.0689797
0.251327 0.376991 0.0915489
0.314159 0.376991 0.113757
0.376991 0.376991 0.135516
0.439823 0.376991 0.15674
0.502655 0.376991 0.177345
0.565487 0.376991 0.197251
0.628319 0.376991 0.216378
0.69115 0.376991 0.234651
0.753982 0.376991 0.251999
0.816814 0.376991 0.268351
0.879646 0.376991 0.283645
0.942478 0.376991 0.297819
1.00531 0.376991 0.310818
1.06814 0.376991 0.32259
1.13097 0.376991 0.333089
1.19381 0.376991 0.342274
1.25664 0.376991 0.350107
1.31947 0.376991 0.356559
1.3823 0.376991 0.361604
1.44513 0.376991 0.365222
1.50796 0.376991 0.367398
1.5708 0.376991 0.368125
1.63363 0.376991 0.367398
1.69646 0.376991 0.365222
1.75929 0.376991 0.361604
1.82212 0.376991 0.356559
1.88496 0.376991 0.350107
1.94779 0.376991 0.342273
2.01062 0.376991 0.333089
2.07345 0.376991 0.32259
2.13628 0.376991 0.310818
2.19912 0.376991 0.297819
2.26195 0.376991 0.283645
2.32478 0.376991 0.268351
2.38761 0.376991 0.251998
2.45044 0.376991 0.234651
2.51327 0.376991 0.216378
2.57611 0.376991 0.197251
2.63894 0.376991 0.177345
2.70177 0.376991 0.15674
2.7646 0.376991 0.135515
2.82743 0.376991 0.113756
2.89027 0.376991 0.0915485
2.9531 0.376991 0.0689793
3.01593 0.376991 0.0461379
3.07876 0.376991 0.0231144
3.14159 0.376991 -3.83253e-07
3.20443 0.376991 -0.0231151
3.26726 0.376991 -0.0461386
3.33009 0.376991 -0.0689801
3.39292 0.376991 -0.0915493
3.45575 0.376991 -0.113757
3.51858 0.376991 -0.135516
3.58142 0.376991 -0.15674
3.64425 0.376991 -0.177346
3.70708 0.376991 -0.197251
3.76991 0.376991 -0.216379
3.83274 0.376991 -0.234652
3.89558 0.376991 -0.251999
3.95841 0.376991 -0.268352
4.02124 0.376991 -0.283645
4.08407 0.376991 -0.297819
4.1469 0.376991 -0.310818
4.20974 0.376991 -0.32259
4.27257 0.376991 -0.333089
4.3354 0.376991 -0.342274
4.39823 0.376991 -0.350107
4.46106 0.376991 -0.356559
4.52389 0.376991 -0.361604
4.58673 0.376991 -0.365222
4.64956 0.376991 -0.367398
4.71239 0.376991 -0.368125
4.77522 0.376991 -0.367398
4.83805 0.376991 -0.365222
4.90089 0.376991 -0.361604
4.96372 0.376991 -0.356559
5.02655 0.376991 -0.350107
5.08938 0.376991 -0.342273
5.15221 0.376991 -0.333089
5.21505 0.376991 -0.32259
5.27788 0.376991 -0.310818
5.34071 0.376991 -0.297819
5.40354 0.376991 -0.283644
5.46637 0.376991 -0.268351
5.5292 0.376991 -0.251998
5.59204 0.376991 -0.234651
5.65487 0.376991 -0.216378
5.7177 0.376991 -0.19725
5.78053 0.376991 -0.177345
5.84336 0.376991 -0.156739
5.9062 0.376991 -0.135515
5.96903 0.376991 -0.113756
6.03186 0.376991 -0.0915481
6.09469 0.376991 -0.0689789
6.15752 0.376991 -0.0461375
6.22036 0.376991 -0.023114
0 0.439823 0
0.0628319 0.439823 0.0267349
0.125664 0.439823 0.0533643
0.188496 0.439823 0.0797831
0.251327 0.439823 0.105887
0.314159 0.439823 0.131573
0.376991 0.439823 0.15674
0.439823 0.439823 0.181288
0.502655 0.439823 0.205121
0.565487 0.439823 0.228144
0.628319 0.439823 0.250267
0.69115 0.439823 0.271402
0.753982 0.439823 0.291466
0.816814 0.439823 0.31038
0.879646 0.439823 0.328069
0.942478 0.439823 0.344463
1.00531 0.439823 0.359497
1.06814 0.439823 0.373113
1.13097 0.439823 0.385257
1.19381 0.439823 0.39588
1.25664 0.439823 0.40494
1.31947 0.439823 0.412403
1.3823 0.439823 0.418238
1.44513 0.439823 0.422422
1.50796 0.439823 0.424939
1.5708 0.439823 0.425779
1.63363 0.439823 0.424939
1.69646 0.439823 0.422422
1.75929 0.439823 0.418238
1.82212 0.439823 0.412403
1.88496 0.439823 0.40494
1.94779 0.439823 0.395879
2.01062 0.439823 0.385257
2.07345 0.439823 0.373113
2.13628 0.439823 0.359497
2.19912 0.439823 0.344463
2.26195 0.439823 0.328068
2.32478 0.439823 0.31038
2.38761 0.439823 0.291466
2.45044 0.439823 0.271402
2.51327 0.439823 0.250266
2.57611 0.439823 0.228144
2.63894 0.439823 0.20512
2.70177 0.439823 0.181288
2.7646 0.439823 0.156739
2.82743 0.439823 0.131573
2.89027 0.439823 0.105887
2.9531 0.439823 0.0797827
3.01593 0.439823 0.0533639
3.07876 0.439823 0.0267345
3.14159 0.439823 -4.43278e-07
3.20443 0.439823 -0.0267354
3.26726 0.439823 -0.0533648
3.33009 0.439823 -0.0797836
3.39292 0.439823 -0.105887
3.45575 0.439823 -0.131574
3.51858 0.439823 -0.15674
3.58142 0.439823 -0.181288
3.64425 0.439823 -0.205121
3.70708 0.439823 -0.228144
3.76991 0.439823 -0.250267
3.83274 0.439823 -0.271402
3.89558 0.439823 -0.291466
3.95841 0.439823 -0.31038
4.02124 0.439823 -0.328069
4.08407 0.439823 -0.344463
4.1469 0.439823 -0.359498
4.20974 0.439823 -0.373113
4.27257 0.439823 -0.385257
4.3354 0.439823 -0.39588
4.39823 0.439823 -0.40494
4.46106 0.439823 -0.412403
4.52389 0.439823 -0.418238
4.58673 0.439823 -0.422422
4.64956 0.439823 -0.424939
4.71239 0.439823 -0.425779
4.77522 0.439823 -0.424939
4.83805 0.439823 -0.422422
4.90089 0.439823 -0.418237
4.96372 0.439823 -0.412402
5.02655 0.439823 -0.40494
5.08938 0.439823 -0.395879
5.15221 0.439823 -0.385256
5.21505 0.439823 -0.373113
5.27788 0.439823 -0.359497
5.34071 0.439823 -0.344462
5.40354 0.439823 -0.328068
5.46637 0.439823 -0.310379
5.5292 0.439823 -0.291465
5.59204 0.439823 -0.271401
5.65487 0.439823 -0.250266
5.7177 0.439823 -0.228143
5.78053 0.439823 -0.20512
5.84336 0.439823 -0.181287
5.9062 0.439823 -0.156739
5.96903 0.439823 -0.131572
6.03186 0.439823 -0.105886
6.09469 0.439823 -0.0797822
6.15752 0.439823 -0.0533634
6.22036 0.439823 -0.026734
0 0.502655 0
0.0628319 0.502655 0.0302496
0.125664 0.502655 0.0603798
0.188496 0.502655 0.0902717
0.251327 0.502655 0.119807
0.314159 0.502655 0.14887
0.376991 0.502655 0.177345
0.439823 0.502655 0.205121
0.502655 0.502655 0.232087
0.565487 0.502655 0.258137
0.628319 0.502655 0.283168
0.69115 0.502655 0.307081
0.753982 0.502655 0.329783
0.816814 0.502655 0.351183
0.879646 0.502655 0.371198
0.942478 0.502655 0.389747
1.00531 0.502655 0.406758
1.06814 0.502655 0.422164
1.13097 0.502655 0.435904
1.19381 0.502655 0.447923
1.25664 0.502655 0.458175
1.31947 0.502655 0.466619
1.3823 0.502655 0.473221
1.44513 0.502655 0.477955
1.50796 0.502655 0.480803
1.5708 0.502655 0.481754
1.63363 0.502655 0.480803
1.69646 0.502655 0.477955
1.75929 0.502655 0.47322
1.82212 0.502655 0.466618
1.88496 0.502655 0.458175
1.94779 0.502655 0.447923
2.01062 0.502655 0.435904
2.07345 0.502655 0.422164
2.13628 0.502655 0.406758
2.19912 0.502655 0.389747
2.26195 0.502655 0.371197
2.32478 0.502655 0.351183
2.38761 0.502655 0.329783
2.45044 0.502655 0.307081
2.51327 0.502655 0.283167
2.57611 0.502655 0.258136
2.63894 0.502655 0.232086
2.70177 0.502655 0.20512
2.7646 0.502655 0.177345
2.82743 0.502655 0.14887
2.89027 0.502655 0.119807
2.9531 0.502655 0.0902712
3.01593 0.502655 0.0603793
3.07876 0.502655 0.0302491
3.14159 0.502655 -5.01552e-07
3.20443 0.502655 -0.0302501
3.26726 0.502655 -0.0603803
3.33009 0.502655 -0.0902722
3.39292 0.502655 -0.119808
3.45575 0.502655 -0.148871
3.51858 0.502655 -0.177346
3.58142 0.502655 -0.205121
3.64425 0.502655 -0.232087
3.70708 0.502655 -0.258137
3.76991 0.502655 -0.283168
3.83274 0.502655 -0.307082
3.89558 0.502655 -0.329784
3.95841 0.502655 -0.351184
4.02124 0.502655 -0.371198
4.08407 0.502655 -0.389747
4.1469 0.502655 -0.406758
4.20974 0.502655 -0.422164
4.27257 0.502655 -0.435904
4.3354 0.502655 -0.447924
4.39823 0.502655 -0.458175
4.46106 0.502655 -0.466619
4.52389 0.502655 -0.473221
4.58673 0.502655 -0.477955
4.64956 0.502655 -0.480803
4.71239 0.502655 -0.481754
4.77522 0.502655 -0.480803
4.83805 0.502655 -0.477955
4.90089 0.502655 -0.47322
4.96372 0.502655 -0.466618
5.02655 0.502655 -0.458175
5.08938 0.502655 -0.447923
5.15221 0.502655 -0.435903
5.21505 0.502655 -0.422164
5.27788 0.502655 -0.406758
5.34071 0.502655 -0.389746
5.40354 0.502655 -0.371197
5.46637 0.502655 -0.351183
5.5292 0.502655 -0.329782
5.59204 0.502655 -0.307081
5.65487 0.502655 -0.283167
5.7177 0.502655 -0.258136
5.78053 0.502655 -0.232086
5.84336 0.502655 -0.20512
5.9062 0.502655 -0.177345
5.96903 0.502655 -0.148869
6.03186 0.502655 -0.119806
6.09469 0.502655 -0.0902707
6.15752 0.502655 -0.0603788
6.22036 0.502655 -0.0302486
0 0.565487 0
0.0628319 0.565487 0.0336448
0.125664 0.565487 0.0671569
0.188496 0.565487 0.100404
0.251327 0.565487 0.133255
0.314159 0.565487 0.16558
0.376991 0.565487 0.197251
0.439823 0.565487 0.228144
0.502655 0.565487 0.258137
0.565487 0.565487 0.28711
0.628319 0.565487 0.314951
0.69115 0.565487 0.341549
0.753982 0.565487 0.366799
0.816814 0.565487 0.390601
0.879646 0.565487 0.412862
0.942478 0.565487 0.433493
1.00531 0.565487 0.452414
1.06814 0.565487 0.469549
1.13097 0.565487 0.484831
1.19381 0.565487 0.498199
1.25664 0.565487 0.509602
1.31947 0.565487 0.518993
1.3823 0.565487 0.526336
1.44513 0.565487 0.531602
1.50796 0.565487 0.53477
1.5708 0.565487 0.535827
1.63363 0.565487 0.53477
1.69646 0.565487 0.531602
1.75929 0.565487 0.526336
1.82212 0.565487 0.518993
1.88496 0.565487 0.509602
1.94779 0.565487 0.498199
2.01062 0.565487 0.484831
2.07345 0.565487 0.469549
2.13628 0.565487 0.452413
2.19912 0.565487 0.433493
2.26195 0.565487 0.412861
2.32478 0.565487 0.390601
2.38761 0.565487 0.366798
2.45044 0.565487 0.341549
2.51327 0.565487 0.314951
2.57611 0.565487 0.28711
2.63894 0.565487 0.258136
2.70177 0.565487 0.228144
2.7646 0.565487 0.197251
2.82743 0.565487 0.165579
2.89027 0.565487 0.133254
2.9531 0.565487 0.100403
3.01593 0.565487 0.0671564
3.07876 0.565487 0.0336443
3.14159 0.565487 -5.57848e-07
3.20443 0.565487 -0.0336454
3.26726 0.565487 -0.0671575
3.33009 0.565487 -0.100405
3.39292 0.565487 -0.133255
3.45575 0.565487 -0.16558
3.51858 0.565487 -0.197252
3.58142 0.565487 -0.228145
3.64425 0.565487 -0.258137
3.70708 0.565487 -0.287111
3.76991 0.565487 -0.314952
3.83274 0.565487 -0.341549
3.89558 0.565487 -0.366799
3.95841 0.565487 -0.390601
4.02124 0.565487 -0.412862
4.08407 0.565487 -0.433493
4.1469 0.565487 -0.452414
4.20974 0.565487 -0.469549
4.27257 0.565487 -0.484831
4.3354 0.565487 -0.498199
4.39823 0.565487 -0.509602
4.46106 0.565487 -0.518993
4.52389 0.565487 -0.526336
4.58673 0.565487 -0.531602
4.64956 0.565487 -0.53477
4.71239 0.565487 -0.535827
4.77522 0.565487 -0.534769
4.83805 0.565487 -0.531602
4.90089 0.565487 -0.526336
4.96372 0.565487 -0.518993
5.02655 0.565487 -0.509601
5.08938 0.565487 -0.498199
5.15221 0.565487 -0.48483
5.21505 0.565487 -0.469548
5.27788 0.565487 -0.452413
5.34071 0.565487 -0.433493
5.40354 0.565487 -0.412861
5.46637 0.565487 -0.3906
5.5292 0.565487 -0.366798
5.59204 0.565487 -0.341548
5.65487 0.565487 -0.31495
5.7177 0.565487 -0.28711
5.78053 0.565487 -0.258136
5.84336 0.565487 -0.228143
5.9062 0.565487 -0.19725
5.96903 0.565487 -0.165579
6.03186 0.565487 -0.133254
6.09469 0.565487 -0.100403
6.15752 0.565487 -0.0671558
6.22036 0.565487 -0.0336437
0 0.628319 0
0.0628319 0.628319 0.0369073
0.125664 0.628319 0.073669
0.188496 0.628319 0.11014
0.251327 0.628319 0.146176
0.314159 0.628319 0.181636
0.376991 0.628319 0.216378
0.439823 0.628319 0.250267
0.502655 0.628319 0.283168
0.565487 0.628319 0.314951
0.628319 0.628319 0.345492
0.69115 0.628319 0.374668
0.753982 0.628319 0.402367
0.816814 0.628319 0.428477
0.879646 0.628319 0.452896
0.942478 0.628319 0.475528
1.00531 0.628319 0.496284
1.06814 0.628319 0.51508
1.13097 0.628319 0.531844
1.19381 0.628319 0.546509
1.25664 0.628319 0.559017
1.31947 0.628319 0.569319
1.3823 0.628319 0.577374
1.44513 0.628319 0.58315
1.50796 0.628319 0.586625
1.5708 0.628319 0.587785
1.63363 0.628319 0.586625
1.69646 0.628319 0.58315
1.75929 0.628319 0.577374
1.82212 0.628319 0.569319
1.88496 0.628319 0.559017
1.94779 0.628319 0.546509
2.01062 0.628319 0.531844
2.07345 0.628319 0.51508
2.13628 0.628319 0.496283
2.19912 0.628319 0.475528
2.26195 0.628319 0.452896
2.32478 0.628319 0.428477
2.38761 0.628319 0.402366
2.45044 0.628319 0.374668
2.51327 0.628319 0.345491
2.57611 0.628319 0.314951
2.63894 0.628319 0.283167
2.70177 0.628319 0.250266
2.7646 0.628319 0.216378
2.82743 0.628319 0.181635
2.89027 0.628319 0.146176
2.9531 0.628319 0.110139
3.01593 0.628319 0.0736685
3.07876 0.628319 0.0369067
3.14159 0.628319 -6.11942e-07
3.20443 0.628319 -0.036908
3.26726 0.628319 -0.0736697
3.33009 0.628319 -0.110141
3.39292 0.628319 -0.146177
3.45575 0.628319 -0.181636
3.51858 0.628319 -0.216379
3.58142 0.628319 -0.250267
3.64425 0.628319 -0.283168
3.70708 0.628319 -0.314952
3.76991 0.628319 -0.345492
3.83274 0.628319 -0.374669
3.89558 0.628319 -0.402367
3.95841 0.628319 -0.428478
4.02124 0.628319 -0.452897
4.08407 0.628319 -0.475529
4.1469 0.628319 -0.496284
4.20974 0.628319 -0.515081
4.27257 0.628319 -0.531844
4.3354 0.628319 -0.546509
4.39823 0.628319 -0.559017
4.46106 0.628319 -0.569319
4.52389 0.628319 -0.577374
4.58673 0.628319 -0.583151
4.64956 0.628319 -0.586625
4.71239 0.628319 -0.587785
4.77522 0.628319 -0.586625
4.83805 0.628319 -0.58315
4.90089 0.628319 -0.577374
4.96372 0.628319 -0.569319
5.02655 0.628319 -0.559017
5.08938 0.628319 -0.546509
5.15221 0.628319 -0.531844
5.21505 0.628319 -0.51508
5.27788 0.628319 -0.496283
5.34071 0.628319 -0.475528
5.40354 0.628319 -0.452896
5.46637 0.628319 -0.428476
5.5292 0.628319 -0.402366
5.59204 0.628319 -0.374668
5.65487 0.628319 -0.345491
5.7177 0.628319 -0.31495
5.78053 0.628319 -0.283167
5.84336 0.628319 -0.250266
5.9062 0.628319 -0.216377
5.96903 0.628319 -0.181635
6.03186 0.628319 -0.146175
6.09469 0.628319 -0.110139